/*--------------------------------*- C++ -*----------------------------------*\
 =========                |
 \      /  F ield         | OpenFOAM: The Open Source CFD Toolbox
  \    /   O peration     | Website:  https://openfoam.org
   \  /    A nd           | Version:  dev                                   
    \/     M anipulation  |
\*---------------------------------------------------------------------------*/
FoamFile
{
    format      ascii;
    class       volScalarField;
    object      Ydefault;
}
// * * * * * * * * * * * * * * * * * * * * * * * * * * * * * * * * * * * * * //

dimensions      [0 0 0 0 0 0 0];

internalField   uniform 0;

boundaryField
{
    #includeEtc "caseDicts/setConstraintTypes"

    inlet 
    {
        type            fixedValue;
        value           $internalField;
    }

    // pilot, closed or open 
    fuelInlet
    {
        type            fixedValue;
        value           $internalField;
    }

    outlet
    {
        type            inletOutlet;
        inletValue      $internalField;
        value           $internalField;
    }

    DLRCJH
    {
        type            zeroGradient;
    }
}

// ************************************************************************* //
